<?xml version="1.0"?>
<VTKFile type="UnstructuredGrid">
  <UnstructuredGrid>
  <Piece NumberOfPoints="505" NumberOfCells="500">
    <Points>
      <DataArray type="Float64" NumberOfComponents="3" format="ascii">
100.37500 0.00000 0
101.50000 0.00000 0
103.00000 0.00000 0
104.50000 0.00000 0
106.00000 0.00000 0
107.50000 0.00000 0
109.00000 0.00000 0
110.50000 0.00000 0
112.00000 0.00000 0
113.50000 0.00000 0
115.00000 0.00000 0
116.50000 0.00000 0
118.00000 0.00000 0
119.50000 0.00000 0
121.00000 0.00000 0
122.50000 0.00000 0
124.00000 0.00000 0
125.50000 0.00000 0
127.00000 0.00000 0
128.50000 0.00000 0
130.00000 0.00000 0
131.50000 0.00000 0
133.00000 0.00000 0
134.50000 0.00000 0
136.00000 0.00000 0
137.50000 0.00000 0
139.00000 0.00000 0
140.50000 0.00000 0
142.00000 0.00000 0
143.50000 0.00000 0
145.00000 0.00000 0
146.50000 0.00000 0
148.00000 0.00000 0
149.50000 0.00000 0
151.00000 0.00000 0
152.50000 0.00000 0
154.00000 0.00000 0
155.50000 0.00000 0
157.00000 0.00000 0
158.50000 0.00000 0
160.00000 0.00000 0
161.50000 0.00000 0
163.00000 0.00000 0
164.50000 0.00000 0
166.00000 0.00000 0
167.50000 0.00000 0
169.00000 0.00000 0
170.50000 0.00000 0
172.00000 0.00000 0
173.50000 0.00000 0
175.00000 0.00000 0
176.50000 0.00000 0
178.00000 0.00000 0
179.50000 0.00000 0
181.00000 0.00000 0
182.50000 0.00000 0
184.00000 0.00000 0
185.50000 0.00000 0
187.00000 0.00000 0
188.50000 0.00000 0
190.00000 0.00000 0
191.50000 0.00000 0
193.00000 0.00000 0
194.50000 0.00000 0
196.00000 0.00000 0
197.50000 0.00000 0
199.00000 0.00000 0
200.50000 0.00000 0
202.00000 0.00000 0
203.50000 0.00000 0
205.00000 0.00000 0
206.50000 0.00000 0
208.00000 0.00000 0
209.50000 0.00000 0
211.00000 0.00000 0
212.50000 0.00000 0
214.00000 0.00000 0
215.50000 0.00000 0
217.00000 0.00000 0
218.50000 0.00000 0
220.00000 0.00000 0
221.50000 0.00000 0
223.00000 0.00000 0
224.50000 0.00000 0
226.00000 0.00000 0
227.50000 0.00000 0
229.00000 0.00000 0
230.50000 0.00000 0
232.00000 0.00000 0
233.50000 0.00000 0
235.00000 0.00000 0
236.50000 0.00000 0
238.00000 0.00000 0
239.50000 0.00000 0
241.00000 0.00000 0
242.50000 0.00000 0
244.00000 0.00000 0
245.50000 0.00000 0
247.00000 0.00000 0
248.50000 0.00000 0
249.62500 0.00000 0
250.00000 0.62500 0
250.00000 2.50000 0
250.00000 5.00000 0
250.00000 7.50000 0
250.00000 10.00000 0
250.00000 12.50000 0
250.00000 15.00000 0
250.00000 17.50000 0
250.00000 20.00000 0
250.00000 22.50000 0
250.00000 25.00000 0
250.00000 27.50000 0
250.00000 30.00000 0
250.00000 32.50000 0
250.00000 35.00000 0
250.00000 37.50000 0
250.00000 40.00000 0
250.00000 42.50000 0
250.00000 45.00000 0
250.00000 47.50000 0
250.00000 50.00000 0
250.00000 52.50000 0
250.00000 55.00000 0
250.00000 57.50000 0
250.00000 60.00000 0
250.00000 62.50000 0
250.00000 65.00000 0
250.00000 67.50000 0
250.00000 70.00000 0
250.00000 72.50000 0
250.00000 75.00000 0
250.00000 77.50000 0
250.00000 80.00000 0
250.00000 82.50000 0
250.00000 85.00000 0
250.00000 87.50000 0
250.00000 90.00000 0
250.00000 92.50000 0
250.00000 95.00000 0
250.00000 97.50000 0
250.00000 100.00000 0
250.00000 102.50000 0
250.00000 105.00000 0
250.00000 107.50000 0
250.00000 110.00000 0
250.00000 112.50000 0
250.00000 115.00000 0
250.00000 117.50000 0
250.00000 120.00000 0
250.00000 122.50000 0
250.00000 125.00000 0
250.00000 127.50000 0
250.00000 130.00000 0
250.00000 132.50000 0
250.00000 135.00000 0
250.00000 137.50000 0
250.00000 140.00000 0
250.00000 142.50000 0
250.00000 145.00000 0
250.00000 147.50000 0
250.00000 150.00000 0
250.00000 152.50000 0
250.00000 155.00000 0
250.00000 157.50000 0
250.00000 160.00000 0
250.00000 162.50000 0
250.00000 165.00000 0
250.00000 167.50000 0
250.00000 170.00000 0
250.00000 172.50000 0
250.00000 175.00000 0
250.00000 177.50000 0
250.00000 180.00000 0
250.00000 182.50000 0
250.00000 185.00000 0
250.00000 187.50000 0
250.00000 190.00000 0
250.00000 192.50000 0
250.00000 195.00000 0
250.00000 197.50000 0
250.00000 200.00000 0
250.00000 202.50000 0
250.00000 205.00000 0
250.00000 207.50000 0
250.00000 210.00000 0
250.00000 212.50000 0
250.00000 215.00000 0
250.00000 217.50000 0
250.00000 220.00000 0
250.00000 222.50000 0
250.00000 225.00000 0
250.00000 227.50000 0
250.00000 230.00000 0
250.00000 232.50000 0
250.00000 235.00000 0
250.00000 237.50000 0
250.00000 240.00000 0
250.00000 242.50000 0
250.00000 245.00000 0
250.00000 247.50000 0
250.00000 249.37500 0
249.37500 250.00000 0
247.50000 250.00000 0
245.00000 250.00000 0
242.50000 250.00000 0
240.00000 250.00000 0
237.50000 250.00000 0
235.00000 250.00000 0
232.50000 250.00000 0
230.00000 250.00000 0
227.50000 250.00000 0
225.00000 250.00000 0
222.50000 250.00000 0
220.00000 250.00000 0
217.50000 250.00000 0
215.00000 250.00000 0
212.50000 250.00000 0
210.00000 250.00000 0
207.50000 250.00000 0
205.00000 250.00000 0
202.50000 250.00000 0
200.00000 250.00000 0
197.50000 250.00000 0
195.00000 250.00000 0
192.50000 250.00000 0
190.00000 250.00000 0
187.50000 250.00000 0
185.00000 250.00000 0
182.50000 250.00000 0
180.00000 250.00000 0
177.50000 250.00000 0
175.00000 250.00000 0
172.50000 250.00000 0
170.00000 250.00000 0
167.50000 250.00000 0
165.00000 250.00000 0
162.50000 250.00000 0
160.00000 250.00000 0
157.50000 250.00000 0
155.00000 250.00000 0
152.50000 250.00000 0
150.00000 250.00000 0
147.50000 250.00000 0
145.00000 250.00000 0
142.50000 250.00000 0
140.00000 250.00000 0
137.50000 250.00000 0
135.00000 250.00000 0
132.50000 250.00000 0
130.00000 250.00000 0
127.50000 250.00000 0
125.00000 250.00000 0
122.50000 250.00000 0
120.00000 250.00000 0
117.50000 250.00000 0
115.00000 250.00000 0
112.50000 250.00000 0
110.00000 250.00000 0
107.50000 250.00000 0
105.00000 250.00000 0
102.50000 250.00000 0
100.00000 250.00000 0
97.50000 250.00000 0
95.00000 250.00000 0
92.50000 250.00000 0
90.00000 250.00000 0
87.50000 250.00000 0
85.00000 250.00000 0
82.50000 250.00000 0
80.00000 250.00000 0
77.50000 250.00000 0
75.00000 250.00000 0
72.50000 250.00000 0
70.00000 250.00000 0
67.50000 250.00000 0
65.00000 250.00000 0
62.50000 250.00000 0
60.00000 250.00000 0
57.50000 250.00000 0
55.00000 250.00000 0
52.50000 250.00000 0
50.00000 250.00000 0
47.50000 250.00000 0
45.00000 250.00000 0
42.50000 250.00000 0
40.00000 250.00000 0
37.50000 250.00000 0
35.00000 250.00000 0
32.50000 250.00000 0
30.00000 250.00000 0
27.50000 250.00000 0
25.00000 250.00000 0
22.50000 250.00000 0
20.00000 250.00000 0
17.50000 250.00000 0
15.00000 250.00000 0
12.50000 250.00000 0
10.00000 250.00000 0
7.50000 250.00000 0
5.00000 250.00000 0
2.50000 250.00000 0
0.62500 250.00000 0
0.00000 249.62500 0
0.00000 248.50000 0
0.00000 247.00000 0
0.00000 245.50000 0
0.00000 244.00000 0
0.00000 242.50000 0
0.00000 241.00000 0
0.00000 239.50000 0
0.00000 238.00000 0
0.00000 236.50000 0
0.00000 235.00000 0
0.00000 233.50000 0
0.00000 232.00000 0
0.00000 230.50000 0
0.00000 229.00000 0
0.00000 227.50000 0
0.00000 226.00000 0
0.00000 224.50000 0
0.00000 223.00000 0
0.00000 221.50000 0
0.00000 220.00000 0
0.00000 218.50000 0
0.00000 217.00000 0
0.00000 215.50000 0
0.00000 214.00000 0
0.00000 212.50000 0
0.00000 211.00000 0
0.00000 209.50000 0
0.00000 208.00000 0
0.00000 206.50000 0
0.00000 205.00000 0
0.00000 203.50000 0
0.00000 202.00000 0
0.00000 200.50000 0
0.00000 199.00000 0
0.00000 197.50000 0
0.00000 196.00000 0
0.00000 194.50000 0
0.00000 193.00000 0
0.00000 191.50000 0
0.00000 190.00000 0
0.00000 188.50000 0
0.00000 187.00000 0
0.00000 185.50000 0
0.00000 184.00000 0
0.00000 182.50000 0
0.00000 181.00000 0
0.00000 179.50000 0
0.00000 178.00000 0
0.00000 176.50000 0
0.00000 175.00000 0
0.00000 173.50000 0
0.00000 172.00000 0
0.00000 170.50000 0
0.00000 169.00000 0
0.00000 167.50000 0
0.00000 166.00000 0
0.00000 164.50000 0
0.00000 163.00000 0
0.00000 161.50000 0
0.00000 160.00000 0
0.00000 158.50000 0
0.00000 157.00000 0
0.00000 155.50000 0
0.00000 154.00000 0
0.00000 152.50000 0
0.00000 151.00000 0
0.00000 149.50000 0
0.00000 148.00000 0
0.00000 146.50000 0
0.00000 145.00000 0
0.00000 143.50000 0
0.00000 142.00000 0
0.00000 140.50000 0
0.00000 139.00000 0
0.00000 137.50000 0
0.00000 136.00000 0
0.00000 134.50000 0
0.00000 133.00000 0
0.00000 131.50000 0
0.00000 130.00000 0
0.00000 128.50000 0
0.00000 127.00000 0
0.00000 125.50000 0
0.00000 124.00000 0
0.00000 122.50000 0
0.00000 121.00000 0
0.00000 119.50000 0
0.00000 118.00000 0
0.00000 116.50000 0
0.00000 115.00000 0
0.00000 113.50000 0
0.00000 112.00000 0
0.00000 110.50000 0
0.00000 109.00000 0
0.00000 107.50000 0
0.00000 106.00000 0
0.00000 104.50000 0
0.00000 103.00000 0
0.00000 101.50000 0
0.00000 100.37500 0
0.25000 99.75000 0
1.00000 99.00000 0
2.00000 98.00000 0
3.00000 97.00000 0
4.00000 96.00000 0
5.00000 95.00000 0
6.00000 94.00000 0
7.00000 93.00000 0
8.00000 92.00000 0
9.00000 91.00000 0
10.00000 90.00000 0
11.00000 89.00000 0
12.00000 88.00000 0
13.00000 87.00000 0
14.00000 86.00000 0
15.00000 85.00000 0
16.00000 84.00000 0
17.00000 83.00000 0
18.00000 82.00000 0
19.00000 81.00000 0
20.00000 80.00000 0
21.00000 79.00000 0
22.00000 78.00000 0
23.00000 77.00000 0
24.00000 76.00000 0
25.00000 75.00000 0
26.00000 74.00000 0
27.00000 73.00000 0
28.00000 72.00000 0
29.00000 71.00000 0
30.00000 70.00000 0
31.00000 69.00000 0
32.00000 68.00000 0
33.00000 67.00000 0
34.00000 66.00000 0
35.00000 65.00000 0
36.00000 64.00000 0
37.00000 63.00000 0
38.00000 62.00000 0
39.00000 61.00000 0
40.00000 60.00000 0
41.00000 59.00000 0
42.00000 58.00000 0
43.00000 57.00000 0
44.00000 56.00000 0
45.00000 55.00000 0
46.00000 54.00000 0
47.00000 53.00000 0
48.00000 52.00000 0
49.00000 51.00000 0
50.00000 50.00000 0
51.00000 49.00000 0
52.00000 48.00000 0
53.00000 47.00000 0
54.00000 46.00000 0
55.00000 45.00000 0
56.00000 44.00000 0
57.00000 43.00000 0
58.00000 42.00000 0
59.00000 41.00000 0
60.00000 40.00000 0
61.00000 39.00000 0
62.00000 38.00000 0
63.00000 37.00000 0
64.00000 36.00000 0
65.00000 35.00000 0
66.00000 34.00000 0
67.00000 33.00000 0
68.00000 32.00000 0
69.00000 31.00000 0
70.00000 30.00000 0
71.00000 29.00000 0
72.00000 28.00000 0
73.00000 27.00000 0
74.00000 26.00000 0
75.00000 25.00000 0
76.00000 24.00000 0
77.00000 23.00000 0
78.00000 22.00000 0
79.00000 21.00000 0
80.00000 20.00000 0
81.00000 19.00000 0
82.00000 18.00000 0
83.00000 17.00000 0
84.00000 16.00000 0
85.00000 15.00000 0
86.00000 14.00000 0
87.00000 13.00000 0
88.00000 12.00000 0
89.00000 11.00000 0
90.00000 10.00000 0
91.00000 9.00000 0
92.00000 8.00000 0
93.00000 7.00000 0
94.00000 6.00000 0
95.00000 5.00000 0
96.00000 4.00000 0
97.00000 3.00000 0
98.00000 2.00000 0
99.00000 1.00000 0
99.75000 0.25000 0
      </DataArray>
    </Points>
    <Cells>
      <DataArray type="Int32" Name="connectivity" format="ascii">
0 1
1 2
2 3
3 4
4 5
5 6
6 7
7 8
8 9
9 10
10 11
11 12
12 13
13 14
14 15
15 16
16 17
17 18
18 19
19 20
20 21
21 22
22 23
23 24
24 25
25 26
26 27
27 28
28 29
29 30
30 31
31 32
32 33
33 34
34 35
35 36
36 37
37 38
38 39
39 40
40 41
41 42
42 43
43 44
44 45
45 46
46 47
47 48
48 49
49 50
50 51
51 52
52 53
53 54
54 55
55 56
56 57
57 58
58 59
59 60
60 61
61 62
62 63
63 64
64 65
65 66
66 67
67 68
68 69
69 70
70 71
71 72
72 73
73 74
74 75
75 76
76 77
77 78
78 79
79 80
80 81
81 82
82 83
83 84
84 85
85 86
86 87
87 88
88 89
89 90
90 91
91 92
92 93
93 94
94 95
95 96
96 97
97 98
98 99
99 100
101 102
102 103
103 104
104 105
105 106
106 107
107 108
108 109
109 110
110 111
111 112
112 113
113 114
114 115
115 116
116 117
117 118
118 119
119 120
120 121
121 122
122 123
123 124
124 125
125 126
126 127
127 128
128 129
129 130
130 131
131 132
132 133
133 134
134 135
135 136
136 137
137 138
138 139
139 140
140 141
141 142
142 143
143 144
144 145
145 146
146 147
147 148
148 149
149 150
150 151
151 152
152 153
153 154
154 155
155 156
156 157
157 158
158 159
159 160
160 161
161 162
162 163
163 164
164 165
165 166
166 167
167 168
168 169
169 170
170 171
171 172
172 173
173 174
174 175
175 176
176 177
177 178
178 179
179 180
180 181
181 182
182 183
183 184
184 185
185 186
186 187
187 188
188 189
189 190
190 191
191 192
192 193
193 194
194 195
195 196
196 197
197 198
198 199
199 200
200 201
202 203
203 204
204 205
205 206
206 207
207 208
208 209
209 210
210 211
211 212
212 213
213 214
214 215
215 216
216 217
217 218
218 219
219 220
220 221
221 222
222 223
223 224
224 225
225 226
226 227
227 228
228 229
229 230
230 231
231 232
232 233
233 234
234 235
235 236
236 237
237 238
238 239
239 240
240 241
241 242
242 243
243 244
244 245
245 246
246 247
247 248
248 249
249 250
250 251
251 252
252 253
253 254
254 255
255 256
256 257
257 258
258 259
259 260
260 261
261 262
262 263
263 264
264 265
265 266
266 267
267 268
268 269
269 270
270 271
271 272
272 273
273 274
274 275
275 276
276 277
277 278
278 279
279 280
280 281
281 282
282 283
283 284
284 285
285 286
286 287
287 288
288 289
289 290
290 291
291 292
292 293
293 294
294 295
295 296
296 297
297 298
298 299
299 300
300 301
301 302
303 304
304 305
305 306
306 307
307 308
308 309
309 310
310 311
311 312
312 313
313 314
314 315
315 316
316 317
317 318
318 319
319 320
320 321
321 322
322 323
323 324
324 325
325 326
326 327
327 328
328 329
329 330
330 331
331 332
332 333
333 334
334 335
335 336
336 337
337 338
338 339
339 340
340 341
341 342
342 343
343 344
344 345
345 346
346 347
347 348
348 349
349 350
350 351
351 352
352 353
353 354
354 355
355 356
356 357
357 358
358 359
359 360
360 361
361 362
362 363
363 364
364 365
365 366
366 367
367 368
368 369
369 370
370 371
371 372
372 373
373 374
374 375
375 376
376 377
377 378
378 379
379 380
380 381
381 382
382 383
383 384
384 385
385 386
386 387
387 388
388 389
389 390
390 391
391 392
392 393
393 394
394 395
395 396
396 397
397 398
398 399
399 400
400 401
401 402
402 403
404 405
405 406
406 407
407 408
408 409
409 410
410 411
411 412
412 413
413 414
414 415
415 416
416 417
417 418
418 419
419 420
420 421
421 422
422 423
423 424
424 425
425 426
426 427
427 428
428 429
429 430
430 431
431 432
432 433
433 434
434 435
435 436
436 437
437 438
438 439
439 440
440 441
441 442
442 443
443 444
444 445
445 446
446 447
447 448
448 449
449 450
450 451
451 452
452 453
453 454
454 455
455 456
456 457
457 458
458 459
459 460
460 461
461 462
462 463
463 464
464 465
465 466
466 467
467 468
468 469
469 470
470 471
471 472
472 473
473 474
474 475
475 476
476 477
477 478
478 479
479 480
480 481
481 482
482 483
483 484
484 485
485 486
486 487
487 488
488 489
489 490
490 491
491 492
492 493
493 494
494 495
495 496
496 497
497 498
498 499
499 500
500 501
501 502
502 503
503 504
      </DataArray>
      <DataArray type="Int32" Name="offsets" format="ascii">
2
4
6
8
10
12
14
16
18
20
22
24
26
28
30
32
34
36
38
40
42
44
46
48
50
52
54
56
58
60
62
64
66
68
70
72
74
76
78
80
82
84
86
88
90
92
94
96
98
100
102
104
106
108
110
112
114
116
118
120
122
124
126
128
130
132
134
136
138
140
142
144
146
148
150
152
154
156
158
160
162
164
166
168
170
172
174
176
178
180
182
184
186
188
190
192
194
196
198
200
202
204
206
208
210
212
214
216
218
220
222
224
226
228
230
232
234
236
238
240
242
244
246
248
250
252
254
256
258
260
262
264
266
268
270
272
274
276
278
280
282
284
286
288
290
292
294
296
298
300
302
304
306
308
310
312
314
316
318
320
322
324
326
328
330
332
334
336
338
340
342
344
346
348
350
352
354
356
358
360
362
364
366
368
370
372
374
376
378
380
382
384
386
388
390
392
394
396
398
400
402
404
406
408
410
412
414
416
418
420
422
424
426
428
430
432
434
436
438
440
442
444
446
448
450
452
454
456
458
460
462
464
466
468
470
472
474
476
478
480
482
484
486
488
490
492
494
496
498
500
502
504
506
508
510
512
514
516
518
520
522
524
526
528
530
532
534
536
538
540
542
544
546
548
550
552
554
556
558
560
562
564
566
568
570
572
574
576
578
580
582
584
586
588
590
592
594
596
598
600
602
604
606
608
610
612
614
616
618
620
622
624
626
628
630
632
634
636
638
640
642
644
646
648
650
652
654
656
658
660
662
664
666
668
670
672
674
676
678
680
682
684
686
688
690
692
694
696
698
700
702
704
706
708
710
712
714
716
718
720
722
724
726
728
730
732
734
736
738
740
742
744
746
748
750
752
754
756
758
760
762
764
766
768
770
772
774
776
778
780
782
784
786
788
790
792
794
796
798
800
802
804
806
808
810
812
814
816
818
820
822
824
826
828
830
832
834
836
838
840
842
844
846
848
850
852
854
856
858
860
862
864
866
868
870
872
874
876
878
880
882
884
886
888
890
892
894
896
898
900
902
904
906
908
910
912
914
916
918
920
922
924
926
928
930
932
934
936
938
940
942
944
946
948
950
952
954
956
958
960
962
964
966
968
970
972
974
976
978
980
982
984
986
988
990
992
994
996
998
1000
      </DataArray>
      <DataArray type="UInt8" Name="types" format="ascii">
68
68
68
68
68
68
68
68
68
68
68
68
68
68
68
68
68
68
68
68
68
68
68
68
68
68
68
68
68
68
68
68
68
68
68
68
68
68
68
68
68
68
68
68
68
68
68
68
68
68
68
68
68
68
68
68
68
68
68
68
68
68
68
68
68
68
68
68
68
68
68
68
68
68
68
68
68
68
68
68
68
68
68
68
68
68
68
68
68
68
68
68
68
68
68
68
68
68
68
68
68
68
68
68
68
68
68
68
68
68
68
68
68
68
68
68
68
68
68
68
68
68
68
68
68
68
68
68
68
68
68
68
68
68
68
68
68
68
68
68
68
68
68
68
68
68
68
68
68
68
68
68
68
68
68
68
68
68
68
68
68
68
68
68
68
68
68
68
68
68
68
68
68
68
68
68
68
68
68
68
68
68
68
68
68
68
68
68
68
68
68
68
68
68
68
68
68
68
68
68
68
68
68
68
68
68
68
68
68
68
68
68
68
68
68
68
68
68
68
68
68
68
68
68
68
68
68
68
68
68
68
68
68
68
68
68
68
68
68
68
68
68
68
68
68
68
68
68
68
68
68
68
68
68
68
68
68
68
68
68
68
68
68
68
68
68
68
68
68
68
68
68
68
68
68
68
68
68
68
68
68
68
68
68
68
68
68
68
68
68
68
68
68
68
68
68
68
68
68
68
68
68
68
68
68
68
68
68
68
68
68
68
68
68
68
68
68
68
68
68
68
68
68
68
68
68
68
68
68
68
68
68
68
68
68
68
68
68
68
68
68
68
68
68
68
68
68
68
68
68
68
68
68
68
68
68
68
68
68
68
68
68
68
68
68
68
68
68
68
68
68
68
68
68
68
68
68
68
68
68
68
68
68
68
68
68
68
68
68
68
68
68
68
68
68
68
68
68
68
68
68
68
68
68
68
68
68
68
68
68
68
68
68
68
68
68
68
68
68
68
68
68
68
68
68
68
68
68
68
68
68
68
68
68
68
68
68
68
68
68
68
68
68
68
68
68
68
68
68
68
68
68
68
68
68
68
68
68
68
68
68
68
68
68
68
68
68
68
68
68
68
68
68
68
68
68
68
68
68
68
68
68
68
68
68
68
68
68
68
68
68
68
68
68
68
68
68
68
68
68
      </DataArray>
    <PointData>
      <DataArray type="Float64" NumberOfComponents="2" Name="Displacements" format="ascii">
0 0
0 0
0 0
0 0
0 0
0 0
0 0
0 0
0 0
0 0
0 0
0 0
0 0
0 0
0 0
0 0
0 0
0 0
0 0
0 0
0 0
0 0
0 0
0 0
0 0
0 0
0 0
0 0
0 0
0 0
0 0
0 0
0 0
0 0
0 0
0 0
0 0
0 0
0 0
0 0
0 0
0 0
0 0
0 0
0 0
0 0
0 0
0 0
0 0
0 0
0 0
0 0
0 0
0 0
0 0
0 0
0 0
0 0
0 0
0 0
0 0
0 0
0 0
0 0
0 0
0 0
0 0
0 0
0 0
0 0
0 0
0 0
0 0
0 0
0 0
0 0
0 0
0 0
0 0
0 0
0 0
0 0
0 0
0 0
0 0
0 0
0 0
0 0
0 0
0 0
0 0
0 0
0 0
0 0
0 0
0 0
0 0
0 0
0 0
0 0
0 0
0 0
0 0
0 0
0 0
0 0
0 0
0 0
0 0
0 0
0 0
0 0
0 0
0 0
0 0
0 0
0 0
0 0
0 0
0 0
0 0
0 0
0 0
0 0
0 0
0 0
0 0
0 0
0 0
0 0
0 0
0 0
0 0
0 0
0 0
0 0
0 0
0 0
0 0
0 0
0 0
0 0
0 0
0 0
0 0
0 0
0 0
0 0
0 0
0 0
0 0
0 0
0 0
0 0
0 0
0 0
0 0
0 0
0 0
0 0
0 0
0 0
0 0
0 0
0 0
0 0
0 0
0 0
0 0
0 0
0 0
0 0
0 0
0 0
0 0
0 0
0 0
0 0
0 0
0 0
0 0
0 0
0 0
0 0
0 0
0 0
0 0
0 0
0 0
0 0
0 0
0 0
0 0
0 0
0 0
0 0
0 0
0 0
0 0
0 0
0 0
0 0
0 0
0 0
0 0
0 0
0 0
0 0
0 0
0 0
0 0
0 0
0 0
0 0
0 0
0 0
0 0
0 0
0 0
0 0
0 0
0 0
0 0
0 0
0 0
0 0
0 0
0 0
0 0
0 0
0 0
0 0
0 0
0 0
0 0
0 0
0 0
0 0
0 0
0 0
0 0
0 0
0 0
0 0
0 0
0 0
0 0
0 0
0 0
0 0
0 0
0 0
0 0
0 0
0 0
0 0
0 0
0 0
0 0
0 0
0 0
0 0
0 0
0 0
0 0
0 0
0 0
0 0
0 0
0 0
0 0
0 0
0 0
0 0
0 0
0 0
0 0
0 0
0 0
0 0
0 0
0 0
0 0
0 0
0 0
0 0
0 0
0 0
0 0
0 0
0 0
0 0
0 0
0 0
0 0
0 0
0 0
0 0
0 0
0 0
0 0
0 0
0 0
0 0
0 0
0 0
0 0
0 0
0 0
0 0
0 0
0 0
0 0
0 0
0 0
0 0
0 0
0 0
0 0
0 0
0 0
0 0
0 0
0 0
0 0
0 0
0 0
0 0
0 0
0 0
0 0
0 0
0 0
0 0
0 0
0 0
0 0
0 0
0 0
0 0
0 0
0 0
0 0
0 0
0 0
0 0
0 0
0 0
0 0
0 0
0 0
0 0
0 0
0 0
0 0
0 0
0 0
0 0
0 0
0 0
0 0
0 0
0 0
0 0
0 0
0 0
0 0
0 0
0 0
0 0
0 0
0 0
0 0
0 0
0 0
0 0
0 0
0 0
0 0
0 0
0 0
0 0
0 0
0 0
0 0
0 0
0 0
0 0
0 0
0 0
0 0
0 0
0 0
0 0
0 0
0 0
0 0
0 0
0 0
0 0
0 0
0 0
0 0
0 0
0 0
0 0
0 0
0 0
0 0
0 0
0 0
0 0
0 0
0 0
0 0
0 0
0 0
0 0
0 0
0 0
0 0
0 0
0 0
0 0
0 0
0 0
0 0
0 0
0 0
0 0
0 0
0 0
0 0
0 0
0 0
0 0
0 0
0 0
0 0
0 0
0 0
0 0
0 0
0 0
0 0
0 0
0 0
0 0
0 0
0 0
0 0
0 0
0 0
0 0
0 0
0 0
0 0
0 0
0 0
0 0
0 0
0 0
0 0
0 0
0 0
0 0
0 0
0 0
0 0
0 0
0 0
0 0
0 0
0 0
0 0
0 0
0 0
0 0
0 0
0 0
0 0
0 0
0 0
0 0
0 0
0 0
0 0
0 0
0 0
0 0
0 0
0 0
0 0
0 0
0 0
0 0
0 0
0 0
0 0
0 0
0 0
0 0
0 0
0 0
0 0
      </DataArray>
    </PointData>
    </Cells>
  </Piece>
  </UnstructuredGrid>
</VTKFile>