<?xml version="1.0"?>
<VTKFile type="UnstructuredGrid">
  <UnstructuredGrid>
  <Piece NumberOfPoints="100" NumberOfCells="95">
    <Points>
      <DataArray type="Float64" NumberOfComponents="3" format="ascii">
102.50000 0.00000 0
110.00000 0.00000 0
120.00000 0.00000 0
130.00000 0.00000 0
140.00000 0.00000 0
150.00000 0.00000 0
160.00000 0.00000 0
170.00000 0.00000 0
180.00000 0.00000 0
190.00000 0.00000 0
200.00000 0.00000 0
210.00000 0.00000 0
220.00000 0.00000 0
230.00000 0.00000 0
240.00000 0.00000 0
247.50000 0.00000 0
250.00000 2.50000 0
250.00000 10.00000 0
250.00000 20.00000 0
250.00000 30.00000 0
250.00000 40.00000 0
250.00000 50.00000 0
250.00000 60.00000 0
250.00000 70.00000 0
250.00000 80.00000 0
250.00000 90.00000 0
250.00000 100.00000 0
250.00000 110.00000 0
250.00000 120.00000 0
250.00000 130.00000 0
250.00000 140.00000 0
250.00000 150.00000 0
250.00000 160.00000 0
250.00000 170.00000 0
250.00000 180.00000 0
250.00000 190.00000 0
250.00000 200.00000 0
250.00000 210.00000 0
250.00000 220.00000 0
250.00000 230.00000 0
250.00000 240.00000 0
250.00000 247.50000 0
247.50000 250.00000 0
240.00000 250.00000 0
230.00000 250.00000 0
220.00000 250.00000 0
210.00000 250.00000 0
200.00000 250.00000 0
190.00000 250.00000 0
180.00000 250.00000 0
170.00000 250.00000 0
160.00000 250.00000 0
150.00000 250.00000 0
140.00000 250.00000 0
130.00000 250.00000 0
120.00000 250.00000 0
110.00000 250.00000 0
100.00000 250.00000 0
90.00000 250.00000 0
80.00000 250.00000 0
70.00000 250.00000 0
60.00000 250.00000 0
50.00000 250.00000 0
40.00000 250.00000 0
30.00000 250.00000 0
20.00000 250.00000 0
10.00000 250.00000 0
2.50000 250.00000 0
0.00000 247.50000 0
0.00000 240.00000 0
0.00000 230.00000 0
0.00000 220.00000 0
0.00000 210.00000 0
0.00000 200.00000 0
0.00000 190.00000 0
0.00000 180.00000 0
0.00000 170.00000 0
0.00000 160.00000 0
0.00000 150.00000 0
0.00000 140.00000 0
0.00000 130.00000 0
0.00000 120.00000 0
0.00000 110.00000 0
0.00000 102.50000 0
1.66667 98.33333 0
6.66667 93.33333 0
13.33333 86.66667 0
20.00000 80.00000 0
26.66667 73.33333 0
33.33333 66.66667 0
40.00000 60.00000 0
46.66667 53.33333 0
53.33333 46.66667 0
60.00000 40.00000 0
66.66667 33.33333 0
73.33333 26.66667 0
80.00000 20.00000 0
86.66667 13.33333 0
93.33333 6.66667 0
98.33333 1.66667 0
      </DataArray>
    </Points>
    <Cells>
      <DataArray type="Int32" Name="connectivity" format="ascii">
0 1
1 2
2 3
3 4
4 5
5 6
6 7
7 8
8 9
9 10
10 11
11 12
12 13
13 14
14 15
16 17
17 18
18 19
19 20
20 21
21 22
22 23
23 24
24 25
25 26
26 27
27 28
28 29
29 30
30 31
31 32
32 33
33 34
34 35
35 36
36 37
37 38
38 39
39 40
40 41
42 43
43 44
44 45
45 46
46 47
47 48
48 49
49 50
50 51
51 52
52 53
53 54
54 55
55 56
56 57
57 58
58 59
59 60
60 61
61 62
62 63
63 64
64 65
65 66
66 67
68 69
69 70
70 71
71 72
72 73
73 74
74 75
75 76
76 77
77 78
78 79
79 80
80 81
81 82
82 83
84 85
85 86
86 87
87 88
88 89
89 90
90 91
91 92
92 93
93 94
94 95
95 96
96 97
97 98
98 99
      </DataArray>
      <DataArray type="Int32" Name="offsets" format="ascii">
2
4
6
8
10
12
14
16
18
20
22
24
26
28
30
32
34
36
38
40
42
44
46
48
50
52
54
56
58
60
62
64
66
68
70
72
74
76
78
80
82
84
86
88
90
92
94
96
98
100
102
104
106
108
110
112
114
116
118
120
122
124
126
128
130
132
134
136
138
140
142
144
146
148
150
152
154
156
158
160
162
164
166
168
170
172
174
176
178
180
182
184
186
188
190
      </DataArray>
      <DataArray type="UInt8" Name="types" format="ascii">
68
68
68
68
68
68
68
68
68
68
68
68
68
68
68
68
68
68
68
68
68
68
68
68
68
68
68
68
68
68
68
68
68
68
68
68
68
68
68
68
68
68
68
68
68
68
68
68
68
68
68
68
68
68
68
68
68
68
68
68
68
68
68
68
68
68
68
68
68
68
68
68
68
68
68
68
68
68
68
68
68
68
68
68
68
68
68
68
68
68
68
68
68
68
68
      </DataArray>
    <PointData>
      <DataArray type="Float64" NumberOfComponents="2" Name="Displacements" format="ascii">
0 0
0 0
0 0
0 0
0 0
0 0
0 0
0 0
0 0
0 0
0 0
0 0
0 0
0 0
0 0
0 0
0 0
0 0
0 0
0 0
0 0
0 0
0 0
0 0
0 0
0 0
0 0
0 0
0 0
0 0
0 0
0 0
0 0
0 0
0 0
0 0
0 0
0 0
0 0
0 0
0 0
0 0
0 0
0 0
0 0
0 0
0 0
0 0
0 0
0 0
0 0
0 0
0 0
0 0
0 0
0 0
0 0
0 0
0 0
0 0
0 0
0 0
0 0
0 0
0 0
0 0
0 0
0 0
0 0
0 0
0 0
0 0
0 0
0 0
0 0
0 0
0 0
0 0
0 0
0 0
0 0
0 0
0 0
0 0
0 0
0 0
0 0
0 0
0 0
0 0
0 0
0 0
0 0
0 0
0 0
0 0
0 0
0 0
0 0
0 0
      </DataArray>
    </PointData>
    </Cells>
  </Piece>
  </UnstructuredGrid>
</VTKFile>